; Adapted from CHARMM-GUI
; NPgT SCHEME for Gromacs - template step6.0_minimization.mdp

define                  = -DPOSRES -DPOSRES_FC_BB=4000.0 -DPOSRES_FC_SC=2000.0 -DPOSRES_FC_LIPID=1000.0 -DPOSRES_FC_WATER=0.0 -DPOSRES_FC_ION=0.0 -DPOSRES_FC_OTHER=0.0 -DDIHRES -DDIHRES_FC=1000.0
integrator              = steep
emtol                   = 1000.0
nsteps                  = 5000
nstlist                 = 10
cutoff-scheme           = Verlet
rlist                   = 0.9
vdwtype                 = Cut-off
vdw-modifier            = None
DispCorr                = EnerPres
rvdw                    = 0.9
coulombtype             = PME
rcoulomb                = 0.9
;
constraints             = h-bonds
constraint_algorithm    = LINCS
