; Generated by GateWizard v{GW_VERSION} on {GW_GENERATED_ON}
; Templates version: testing (27 Jul 2026)
; Adapted from CHARMM-GUI
; NVT SCHEME for Gromacs - template step6.5_equilibration.mdp

define                  = -DPOSRES -DPOSRES_FC_BB=200.0 -DPOSRES_FC_SC=50.0 -DPOSRES_FC_LIPID=40.0 -DPOSRES_FC_WATER=0.0 -DPOSRES_FC_ION=0.0 -DPOSRES_FC_OTHER=0.0 -DDIHRES -DDIHRES_FC=100.0
integrator              = md
dt                      = 0.002
nsteps                  = 250000
nstxout-compressed      = 5000
nstxout                 = 0
nstvout                 = 0
nstfout                 = 0
nstcalcenergy           = 100
nstenergy               = 1000
nstlog                  = 1000
;
cutoff-scheme           = Verlet
nstlist                 = 20
rlist                   = 0.9
vdwtype                 = Cut-off
vdw-modifier            = None
DispCorr                = EnerPres
rvdw                    = 0.9
coulombtype             = PME
rcoulomb                = 0.9
;
tcoupl                  = v-rescale
tc_grps                 = SOLU MEMB SOLV
tau_t                   = 1.0 1.0 1.0
ref_t                   = 303.15 303.15 303.15
;
pcoupl                  = no
;
constraints             = h-bonds
constraint_algorithm    = LINCS
continuation            = yes
;
nstcomm                 = 100
comm_mode               = linear
comm_grps               = SOLU_MEMB SOLV
